
 *******************************************************************************
 *   ___                                                                       *
 *  /   \                                                                      *
 * [ABORT]  The specified OLD file <H2_HF_GAPW_comp_orca_sing_trip.inp> cannot *
 *  \___/           be opened. It does not exist. Data directory path:         *
 *    |                      /data/ahehn/cp2k_own_master/data                  *
 *  O/|                                                                        *
 * /| |                                                                        *
 * / \                                                   common/cp_files.F:396 *
 *******************************************************************************


 ===== Routine Calling Stack ===== 

            1 read_input
 DBCSR| CPU Multiplication driver                                           XSMM (U)
 DBCSR| Multrec recursion limit                                              512 (U)
 DBCSR| Multiplication stack size                                           1000 (D)
 DBCSR| Maximum elements for images                                    UNLIMITED (U)
 DBCSR| Multiplicative factor virtual images                                   1 (U)
 DBCSR| Use multiplication densification                                       T (D)
 DBCSR| Multiplication size stacks                                             3 (U)
 DBCSR| Use memory pool for CPU allocation                                     F (U)
 DBCSR| Number of 3D layers                                               SINGLE (U)
 DBCSR| Use MPI memory allocation                                              F (U)
 DBCSR| Use RMA algorithm                                                      F (U)
 DBCSR| Use Communication thread                                               T (U)
 DBCSR| Communication thread load                                             87 (D)
 DBCSR| MPI: My process id                                                     0
 DBCSR| MPI: Number of processes                                              16
 DBCSR| OMP: Current number of threads                                         1
 DBCSR| OMP: Max number of threads                                             1
 DBCSR| Split modifier for TAS multiplication algorithm                  1.0E+00 (U)


  **** **** ******  **  PROGRAM STARTED AT               2023-08-04 10:11:27.320
 ***** ** ***  *** **   PROGRAM STARTED ON                               tcopt15
 **    ****   ******    PROGRAM STARTED BY                                 ahehn
 ***** **    ** ** **   PROGRAM PROCESS ID                                109752
  **** **  *******  **  PROGRAM STARTED IN /data/ahehn/JanRobert/Masterthesis/Re
                                           gtests/GAPW/gapw_all/h2/pbe/pbe_gapw

 CP2K| version string:                 CP2K version 2023.2 (Development Version)
 CP2K| source code revision number:                                  git:7e4716c
 CP2K| cp2kflags: omp libint fftw3 libxc parallel mpi_f08 scalapack cosma xsmm s
 CP2K|            pglib sirius libvori libbqb libvdwxc
 CP2K| is freely available from                            https://www.cp2k.org/
 CP2K| Program compiled at                      Fri 04 Aug 2023 09:47:48 AM CEST
 CP2K| Program compiled on                                               tcopt15
 CP2K| Program compiled for                                                local
 CP2K| Data directory path                      /data/ahehn/cp2k_own_master/data
 CP2K| Input file name                       H2_PBE_GAPW_comp_orca_sing_trip.inp

 GLOBAL| Force Environment number                                              1
 GLOBAL| Basis set file name                                     EMSL_BASIS_SETS
 GLOBAL| Potential file name                                           POTENTIAL
 GLOBAL| MM Potential file name                                     MM_POTENTIAL
 GLOBAL| Coordinate file name                                      __STD_INPUT__
 GLOBAL| Method name                                                        CP2K
 GLOBAL| Project name                                                         ne
 GLOBAL| Run type                                                         ENERGY
 GLOBAL| FFT library                                                       FFTW3
 GLOBAL| Diagonalization library                                       ScaLAPACK
 GLOBAL| DGEMM library                                                      BLAS
 GLOBAL| Orthonormality check for eigenvectors                          DISABLED
 GLOBAL| Matrix multiplication library                                     COSMA
 GLOBAL| All-to-all communication in single precision                          F
 GLOBAL| FFTs using library dependent lengths                                  F
 GLOBAL| Grid backend                                                       AUTO
 GLOBAL| Global print level                                               MEDIUM
 GLOBAL| MPI I/O enabled                                                       T
 GLOBAL| Total number of message passing processes                            16
 GLOBAL| Number of threads for this process                                    1
 GLOBAL| This output is from process                                           0
 GLOBAL| Stack size for threads created by OpenMP (OMP_STACKSIZE)        default
 GLOBAL| CPU model name                          AMD EPYC 7742 64-Core Processor
 GLOBAL| CPUID                                                              1002
 GLOBAL| Compiled for CPUID                                                    0

 *** HINT in environment.F:904 :: The compiler target flags (generic) used ***
 *** to build this binary cannot exploit all extensions of this CPU model  ***
 *** (x86_avx2). Consider compiler target flags as part of FCFLAGS and     ***
 *** CFLAGS (ARCH file).                                                   ***


 MEMORY| system memory details [Kb]
 MEMORY|                        rank 0           min           max       average
 MEMORY| MemTotal            528075188     528075188     528075188     528075188
 MEMORY| MemFree             490108488     490108488     490108488     490108488
 MEMORY| Buffers                     8             8             8             8
 MEMORY| Cached               28269384      28269384      28269384      28269384
 MEMORY| Slab                  2074516       2074516       2074516       2074516
 MEMORY| SReclaimable           880220        880220        880220        880220
 MEMORY| MemLikelyFree       519258100     519258100     519258100     519258100


 *** Fundamental physical constants (SI units) ***

 *** Literature: B. J. Mohr and B. N. Taylor,
 ***             CODATA recommended values of the fundamental physical
 ***             constants: 2006, Web Version 5.1
 ***             http://physics.nist.gov/constants

 Speed of light in vacuum [m/s]                             2.99792458000000E+08
 Magnetic constant or permeability of vacuum [N/A**2]       1.25663706143592E-06
 Electric constant or permittivity of vacuum [F/m]          8.85418781762039E-12
 Planck constant (h) [J*s]                                  6.62606896000000E-34
 Planck constant (h-bar) [J*s]                              1.05457162825177E-34
 Elementary charge [C]                                      1.60217648700000E-19
 Electron mass [kg]                                         9.10938215000000E-31
 Electron g factor [ ]                                     -2.00231930436220E+00
 Proton mass [kg]                                           1.67262163700000E-27
 Fine-structure constant                                    7.29735253760000E-03
 Rydberg constant [1/m]                                     1.09737315685270E+07
 Avogadro constant [1/mol]                                  6.02214179000000E+23
 Boltzmann constant [J/K]                                   1.38065040000000E-23
 Atomic mass unit [kg]                                      1.66053878200000E-27
 Bohr radius [m]                                            5.29177208590000E-11

 *** Conversion factors ***

 [u] -> [a.u.]                                              1.82288848426455E+03
 [Angstrom] -> [Bohr] = [a.u.]                              1.88972613288564E+00
 [a.u.] = [Bohr] -> [Angstrom]                              5.29177208590000E-01
 [a.u.] -> [s]                                              2.41888432650478E-17
 [a.u.] -> [fs]                                             2.41888432650478E-02
 [a.u.] -> [J]                                              4.35974393937059E-18
 [a.u.] -> [N]                                              8.23872205491840E-08
 [a.u.] -> [K]                                              3.15774647902944E+05
 [a.u.] -> [kJ/mol]                                         2.62549961709828E+03
 [a.u.] -> [kcal/mol]                                       6.27509468713739E+02
 [a.u.] -> [Pa]                                             2.94210107994716E+13
 [a.u.] -> [bar]                                            2.94210107994716E+08
 [a.u.] -> [atm]                                            2.90362800883016E+08
 [a.u.] -> [eV]                                             2.72113838565563E+01
 [a.u.] -> [Hz]                                             6.57968392072181E+15
 [a.u.] -> [1/cm] (wave numbers)                            2.19474631370540E+05
 [a.u./Bohr**2] -> [1/cm]                                   5.14048714338585E+03
 

 CELL_TOP| Volume [angstrom^3]:                                       125.000000
 CELL_TOP| Vector a [angstrom     5.000     0.000     0.000   |a| =     5.000000
 CELL_TOP| Vector b [angstrom     0.000     5.000     0.000   |b| =     5.000000
 CELL_TOP| Vector c [angstrom     0.000     0.000     5.000   |c| =     5.000000
 CELL_TOP| Angle (b,c), alpha [degree]:                                90.000000
 CELL_TOP| Angle (a,c), beta  [degree]:                                90.000000
 CELL_TOP| Angle (a,b), gamma [degree]:                                90.000000
 CELL_TOP| Numerically orthorhombic:                                         YES
 CELL_TOP| Periodicity                                                      NONE

 GENERATE|  Preliminary Number of Bonds generated:                             0
 GENERATE|  Achieved consistency in connectivity generation.

 CELL| Volume [angstrom^3]:                                           125.000000
 CELL| Vector a [angstrom]:       5.000     0.000     0.000   |a| =     5.000000
 CELL| Vector b [angstrom]:       0.000     5.000     0.000   |b| =     5.000000
 CELL| Vector c [angstrom]:       0.000     0.000     5.000   |c| =     5.000000
 CELL| Angle (b,c), alpha [degree]:                                    90.000000
 CELL| Angle (a,c), beta  [degree]:                                    90.000000
 CELL| Angle (a,b), gamma [degree]:                                    90.000000
 CELL| Numerically orthorhombic:                                             YES
 CELL| Periodicity                                                          NONE

 CELL_REF| Volume [angstrom^3]:                                       125.000000
 CELL_REF| Vector a [angstrom     5.000     0.000     0.000   |a| =     5.000000
 CELL_REF| Vector b [angstrom     0.000     5.000     0.000   |b| =     5.000000
 CELL_REF| Vector c [angstrom     0.000     0.000     5.000   |c| =     5.000000
 CELL_REF| Angle (b,c), alpha [degree]:                                90.000000
 CELL_REF| Angle (a,c), beta  [degree]:                                90.000000
 CELL_REF| Angle (a,b), gamma [degree]:                                90.000000
 CELL_REF| Numerically orthorhombic:                                         YES
 CELL_REF| Periodicity                                                      NONE

 *******************************************************************************
 *******************************************************************************
 **                                                                           **
 **     #####                         ##              ##                      **
 **    ##   ##            ##          ##              ##                      **
 **   ##     ##                       ##            ######                    **
 **   ##     ##  ##   ##  ##   #####  ##  ##   ####   ##    #####    #####    **
 **   ##     ##  ##   ##  ##  ##      ## ##   ##      ##   ##   ##  ##   ##   **
 **   ##  ## ##  ##   ##  ##  ##      ####     ###    ##   ######   ######    **
 **    ##  ###   ##   ##  ##  ##      ## ##      ##   ##   ##       ##        **
 **     #######   #####   ##   #####  ##  ##  ####    ##    #####   ##        **
 **           ##                                                    ##        **
 **                                                                           **
 **                                                ... make the atoms dance   **
 **                                                                           **
 **            Copyright (C) by CP2K developers group (2000-2023)             **
 **                      J. Chem. Phys. 152, 194103 (2020)                    **
 **                                                                           **
 *******************************************************************************

 DFT| Spin restricted Kohn-Sham (RKS) calculation                            RKS
 DFT| Multiplicity                                                             1
 DFT| Number of spin states                                                    1
 DFT| Charge                                                                   0
 DFT| Self-interaction correction (SIC)                                       NO
 DFT| Cutoffs: density                                              1.000000E-10
 DFT|          gradient                                             1.000000E-10
 DFT|          tau                                                  1.000000E-10
 DFT|          cutoff_smoothing_range                               0.000000E+00
 DFT| XC density smoothing                                                  NONE
 DFT| XC derivatives                                                          PW

 FUNCTIONAL| PBE:
 FUNCTIONAL| J.P.Perdew, K.Burke, M.Ernzerhof, Phys. Rev. Letter, vol. 77, n 18,
 FUNCTIONAL|  pp. 3865-3868, (1996){spin unpolarized}                           


 QS| Method:                                                                GAPW
 QS| Density plane wave grid type                        NON-SPHERICAL FULLSPACE
 QS| Number of grid levels:                                                    4
 QS| Density cutoff [a.u.]:                                                200.0
 QS| Multi grid cutoff [a.u.]: 1) grid level                               200.0
 QS|                           2) grid level                                66.7
 QS|                           3) grid level                                22.2
 QS|                           4) grid level                                 7.4
 QS| Grid level progression factor:                                          3.0
 QS| Relative density cutoff [a.u.]:                                        20.0
 QS| Interaction thresholds: eps_pgf_orb:                                1.0E-05
 QS|                         eps_filter_matrix:                          0.0E+00
 QS|                         eps_core_charge:                            1.0E-12
 QS|                         eps_rho_gspace:                             1.0E-10
 QS|                         eps_rho_rspace:                             1.0E-10
 QS|                         eps_gvg_rspace:                             1.0E-05
 QS|                         eps_ppl:                                    1.0E-02
 QS|                         eps_ppnl:                                   1.0E-07
 QS| GAPW|      One center basis from orbital basis primitives
 QS| GAPW|                   eps_fit:                                    1.0E-04
 QS| GAPW|                   eps_iso:                                    1.0E-12
 QS| GAPW|                   eps_svd:                                    1.0E-08
 QS| GAPW|                   eps_cpc:                                    1.0E-10
 QS| GAPW|   atom-r-grid: quadrature:                                     GC_LOG
 QS| GAPW|      atom-s-grid:  max l :                                          2
 QS| GAPW|      max_l_rho0 :                                                   2


 ATOMIC KIND INFORMATION

  1. Atomic kind: H                                     Number of atoms:       2

     Orbital Basis Set                                         Ahlrichs-def2-SVP

       Number of orbital shell sets:                                           3
       Number of orbital shells:                                               3
       Number of primitive Cartesian functions:                                5
       Number of Cartesian basis functions:                                    5
       Number of spherical basis functions:                                    5
       Norm type:                                                              2

       Normalised Cartesian orbitals:

                        Set   Shell   Orbital            Exponent    Coefficient

                          1       1    1s               13.010701       0.163490
                                                         1.962257       0.277352
                                                         0.444538       0.315750

                          2       1    1s                0.121950       0.147077

                          3       1    1px               0.800000       1.078456
                          3       1    1py               0.800000       1.078456
                          3       1    1pz               0.800000       1.078456

       Atomic covalent radius [Angstrom]:                                  0.320

       Atomic van der Waals radius [Angstrom]:                             1.090

     The atoms of this atomic kind are PAW atoms (GAPW):
       Hard Gaussian function radius:                                      1.200
       Rho0 radius:                                                        1.200
       Maximum GTO radius used for PAW projector construction:            24.566

     GAPW Soft Basis Set                                  Ahlrichs-def2-SVP_soft

       Number of orbital shell sets:                                           3
       Number of orbital shells:                                               3
       Number of primitive Cartesian functions:                                4
       Number of Cartesian basis functions:                                    5
       Number of spherical basis functions:                                    5
       Norm type:                                                              2

       Normalised Cartesian orbitals:

                        Set   Shell   Orbital            Exponent    Coefficient

                          1       1    1s                1.962257       0.277352
                                                         0.444538       0.315750

                          2       1    1s                0.121950       0.147077

                          3       1    1px               0.800000       1.078456
                          3       1    1py               0.800000       1.078456
                          3       1    1pz               0.800000       1.078456

     AE Potential information for                                            ALL

       Description:                                       All-electron potential
                                          Krack, Parrinello, PCCP 2, 2105 (2000)

       Gaussian exponent of the core charge distribution:              12.500000
       Electronic configuration (s p d ...):                           1   0   0


 MOLECULE KIND INFORMATION


 All atoms are their own molecule, skipping detailed information


 TOTAL NUMBERS AND MAXIMUM NUMBERS

  Total number of            - Atomic kinds:                                   1
                             - Atoms:                                          2
                             - Shell sets:                                     6
                             - Shells:                                         6
                             - Primitive Cartesian functions:                 10
                             - Cartesian basis functions:                     10
                             - Spherical basis functions:                     10

  Maximum angular momentum of the orbital basis functions:                     1


 MODULE QUICKSTEP: ATOMIC COORDINATES IN ANGSTROM

   Atom Kind Element         X             Y             Z       Z(eff)     Mass
      1    1 H     1      2.500000      2.500000      2.000000   1.0000   1.0079
      2    1 H     1      2.500000      2.500000      3.000000   1.0000   1.0079



 SCF PARAMETERS         Density guess:                                    ATOMIC
                        --------------------------------------------------------
                        max_scf:                                              20
                        max_scf_history:                                       0
                        max_diis:                                              4
                        --------------------------------------------------------
                        eps_scf:                                        1.00E-07
                        eps_scf_history:                                0.00E+00
                        eps_diis:                                       1.00E-01
                        eps_eigval:                                     1.00E-05
                        --------------------------------------------------------
                        level_shift [a.u.]:                             0.000000
                        --------------------------------------------------------
                        Outer loop SCF in use 
                        No variables optimised in outer loop
                        eps_scf                                         1.00E-07
                        max_scf                                              200
                        No outer loop optimization
                        step_size                                       5.00E-01

 PW_GRID| Information for grid number                                          1
 PW_GRID| Grid distributed over                                    16 processors
 PW_GRID| Real space group dimensions                                    16    1
 PW_GRID| the grid is blocked:                                                NO
 PW_GRID| Cutoff [a.u.]                                                    400.0
 PW_GRID| spherical cutoff:                                                   NO
 PW_GRID|   Bounds   1            -45      44                Points:          90
 PW_GRID|   Bounds   2            -45      44                Points:          90
 PW_GRID|   Bounds   3            -45      44                Points:          90
 PW_GRID| Volume element (a.u.^3)  0.1157E-02     Volume (a.u.^3)       843.5418
 PW_GRID| Grid span                                                    FULLSPACE
 PW_GRID|   Distribution                         Average         Max         Min
 PW_GRID|   G-Vectors                            45562.5       45630       45540
 PW_GRID|   G-Rays                                 506.2         507         506
 PW_GRID|   Real Space Points                    45562.5       48600       40500

 PW_GRID| Information for grid number                                          2
 PW_GRID| Number of the reference grid                                         1
 PW_GRID| Grid distributed over                                    16 processors
 PW_GRID| Real space group dimensions                                    16    1
 PW_GRID| the grid is blocked:                                                NO
 PW_GRID| Cutoff [a.u.]                                                    200.0
 PW_GRID| spherical cutoff:                                                   NO
 PW_GRID|   Bounds   1            -32      31                Points:          64
 PW_GRID|   Bounds   2            -32      31                Points:          64
 PW_GRID|   Bounds   3            -32      31                Points:          64
 PW_GRID| Volume element (a.u.^3)  0.3218E-02     Volume (a.u.^3)       843.5418
 PW_GRID| Grid span                                                    FULLSPACE
 PW_GRID|   Distribution                         Average         Max         Min
 PW_GRID|   G-Vectors                            16384.0       16448       16320
 PW_GRID|   G-Rays                                 256.0         257         255
 PW_GRID|   Real Space Points                    16384.0       16384       16384

 PW_GRID| Information for grid number                                          3
 PW_GRID| Number of the reference grid                                         2
 PW_GRID| Grid distributed over                                    16 processors
 PW_GRID| Real space group dimensions                                    16    1
 PW_GRID| the grid is blocked:                                                NO
 PW_GRID| Cutoff [a.u.]                                                     66.7
 PW_GRID| spherical cutoff:                                                   NO
 PW_GRID|   Bounds   1            -18      17                Points:          36
 PW_GRID|   Bounds   2            -18      17                Points:          36
 PW_GRID|   Bounds   3            -18      17                Points:          36
 PW_GRID| Volume element (a.u.^3)  0.1808E-01     Volume (a.u.^3)       843.5418
 PW_GRID| Grid span                                                    FULLSPACE
 PW_GRID|   Distribution                         Average         Max         Min
 PW_GRID|   G-Vectors                             2916.0        2952        2880
 PW_GRID|   G-Rays                                  81.0          82          80
 PW_GRID|   Real Space Points                     2916.0        3888        2592

 PW_GRID| Information for grid number                                          4
 PW_GRID| Number of the reference grid                                         2
 PW_GRID| Grid distributed over                                    16 processors
 PW_GRID| Real space group dimensions                                    16    1
 PW_GRID| the grid is blocked:                                                NO
 PW_GRID| Cutoff [a.u.]                                                     22.2
 PW_GRID| spherical cutoff:                                                   NO
 PW_GRID|   Bounds   1            -12      11                Points:          24
 PW_GRID|   Bounds   2            -12      11                Points:          24
 PW_GRID|   Bounds   3            -12      11                Points:          24
 PW_GRID| Volume element (a.u.^3)  0.6102E-01     Volume (a.u.^3)       843.5418
 PW_GRID| Grid span                                                    FULLSPACE
 PW_GRID|   Distribution                         Average         Max         Min
 PW_GRID|   G-Vectors                              864.0         912         840
 PW_GRID|   G-Rays                                  36.0          38          35
 PW_GRID|   Real Space Points                      864.0        1152         576

 PW_GRID| Information for grid number                                          5
 PW_GRID| Number of the reference grid                                         2
 PW_GRID| Grid distributed over                                    16 processors
 PW_GRID| Real space group dimensions                                     4    4
 PW_GRID| the grid is blocked:                                                NO
 PW_GRID| Cutoff [a.u.]                                                      7.4
 PW_GRID| spherical cutoff:                                                   NO
 PW_GRID|   Bounds   1             -6       5                Points:          12
 PW_GRID|   Bounds   2             -6       5                Points:          12
 PW_GRID|   Bounds   3             -6       5                Points:          12
 PW_GRID| Volume element (a.u.^3)  0.4882         Volume (a.u.^3)       843.5418
 PW_GRID| Grid span                                                    FULLSPACE
 PW_GRID|   Distribution                         Average         Max         Min
 PW_GRID|   G-Vectors                              108.0         120          96
 PW_GRID|   G-Rays                                   9.0          10           8
 PW_GRID|   Real Space Points                      108.0         108         108

 POISSON| Solver                                          Martyna-Tuckerman (MT)
 POISSON| MT| Alpha                                                        7.000
 POISSON| MT| Relative cutoff                                                2.0
 POISSON| Periodicity                                                       NONE

 RS_GRID| Information for grid number                                          2
 RS_GRID|   Bounds   1            -32      31                Points:          64
 RS_GRID|   Bounds   2            -32      31                Points:          64
 RS_GRID|   Bounds   3            -32      31                Points:          64
 RS_GRID| Real space fully replicated
 RS_GRID| Group size                                                           1

 RS_GRID| Information for grid number                                          3
 RS_GRID|   Bounds   1            -18      17                Points:          36
 RS_GRID|   Bounds   2            -18      17                Points:          36
 RS_GRID|   Bounds   3            -18      17                Points:          36
 RS_GRID| Real space fully replicated
 RS_GRID| Group size                                                           1

 RS_GRID| Information for grid number                                          4
 RS_GRID|   Bounds   1            -12      11                Points:          24
 RS_GRID|   Bounds   2            -12      11                Points:          24
 RS_GRID|   Bounds   3            -12      11                Points:          24
 RS_GRID| Real space fully replicated
 RS_GRID| Group size                                                           1

 RS_GRID| Information for grid number                                          5
 RS_GRID|   Bounds   1             -6       5                Points:          12
 RS_GRID|   Bounds   2             -6       5                Points:          12
 RS_GRID|   Bounds   3             -6       5                Points:          12
 RS_GRID| Real space fully replicated
 RS_GRID| Group size                                                           1

 Number of electrons:                                                          2
 Number of occupied orbitals:                                                  1
 Number of molecular orbitals:                                                 1

 Number of orbital functions:                                                 10
 Number of independent orbital functions:                                     10

 Extrapolation method: initial_guess

 Atomic guess: The first density matrix is obtained in terms of atomic orbitals
               and electronic configurations assigned to each atomic kind

 Guess for atomic kind: H

 Electronic structure
    Total number of core electrons                                          0.00
    Total number of valence electrons                                       1.00
    Total number of electrons                                               1.00
    Multiplicity                                                   not specified
    S      1.00


 *******************************************************************************
                  Iteration          Convergence                     Energy [au]
 *******************************************************************************
                          1        0.645692E-02                  -0.443634037158
                          2        0.933284E-03                  -0.443688702531
                          3        0.520132E-06                  -0.443689868196

 Energy components [Hartree]           Total Energy ::           -0.443689868196
                                        Band Energy ::           -0.225449696555
                                     Kinetic Energy ::            0.430549218220
                                   Potential Energy ::           -0.874239086416
                                      Virial (-V/T) ::            2.030520668532
                                        Core Energy ::           -0.496535109215
                                          XC Energy ::           -0.237384317325
                                     Coulomb Energy ::            0.290229558343

 Orbital energies  State     L     Occupation   Energy[a.u.]          Energy[eV]

                       1     0          1.000      -0.225450           -6.134798


 Total Electron Density at R=0:                                         0.220662
 Re-scaling the density matrix to get the right number of electrons
                  # Electrons              Trace(P)               Scaling factor
                            2                 2.000                        1.000


 SCF WAVEFUNCTION OPTIMIZATION

  ----------------------------------- OT ---------------------------------------
  Minimizer      : DIIS                : direct inversion
                                         in the iterative subspace
                                         using   7 DIIS vectors
                                         safer DIIS on
  Preconditioner : FULL_ALL            : diagonalization, state selective
  Precond_solver : DEFAULT
  stepsize       :    0.15000000                  energy_gap     :    0.08000000
  eps_taylor     :   0.10000E-15                  max_taylor     :             4
  ----------------------------------- OT ---------------------------------------

  Step     Update method      Time    Convergence         Total energy    Change
  ------------------------------------------------------------------------------
     1 OT DIIS     0.15E+00    0.1     0.26088171        -1.0843927709 -1.08E+00
     2 OT DIIS     0.15E+00    0.0     0.05768949        -1.1359150666 -5.15E-02
     3 OT DIIS     0.15E+00    0.0     0.01411825        -1.1382886711 -2.37E-03
     4 OT DIIS     0.15E+00    0.0     0.00185660        -1.1384512064 -1.63E-04
     5 OT DIIS     0.15E+00    0.0     0.00052658        -1.1384547409 -3.53E-06
     6 OT DIIS     0.15E+00    0.0     0.00002732        -1.1384549275 -1.87E-07
     7 OT DIIS     0.15E+00    0.0     0.00000303        -1.1384549283 -8.20E-10
     8 OT DIIS     0.15E+00    0.0     0.00000301        -1.1384549283 -9.93E-14
     9 OT DIIS     0.15E+00    0.0     0.00000017        -1.1384549283 -9.34E-12
    10 OT DIIS     0.15E+00    0.0     3.4094E-09        -1.1384549283 -7.82E-13

  *** SCF run converged in    10 steps ***


  Electronic density on regular grids:         -1.9820727695        0.0179272305
  Core density on regular grids:                2.0000000000       -0.0000000000
  Hard and soft densities (Lebedev):           -3.6171971931       -3.5992699630
  Total Rho_soft + Rho1_hard - Rho1_soft       -1.9999999996
  Total charge density (r-space):               0.0000000004
  Total Rho_soft + Rho0_soft (g-space):        -0.0000000061

  Overlap energy of the core charge distribution:               0.00000000001254
  Self energy of the core charge distribution:                 -2.82094791773878
  Core Hamiltonian energy:                                      0.82557543122544
  Hartree energy:                                               1.19817556973931
  Exchange-correlation energy:                                 -0.61206023630591

  GAPW| Exc from hard and soft atomic rho1:                    -0.01198484816572
  GAPW| local Eh = 1 center integrals:                          0.28278707295113

  Total energy:                                                -1.13845492828199

  outer SCF iter =    1 RMS gradient =   0.34E-08 energy =         -1.1384549283
  outer SCF loop converged in   1 iterations or   10 steps


 !-----------------------------------------------------------------------------!
                     Mulliken Population Analysis

 #  Atom  Element  Kind  Atomic population                           Net charge
       1     H        1          1.000000                             -0.000000
       2     H        1          1.000000                              0.000000
 # Total charge                              2.000000                 -0.000000

 !-----------------------------------------------------------------------------!

 !-----------------------------------------------------------------------------!
                           Hirshfeld Charges

  #Atom  Element  Kind  Ref Charge     Population                    Net charge
      1       H      1       1.000          0.888                         0.112
      2       H      1       1.000          0.888                         0.112

  Total Charge                                                            0.223
 !-----------------------------------------------------------------------------!

 *******************************************************************************
 **                                                                           **
 **         ######## #######   #######   ######## #######  ########           **
 **            ##    ##     ## ##     ## ##       ##   ##     ##              **
 **            ##    ##     ## ##     ## ######   #######     ##              **
 **            ##    ##     ## ##     ## ##       ##          ##              **
 **            ##    #######   #######   ##       ##          ##              **
 **                                                                           **
 *******************************************************************************
 KERNEL|                                                                    FULL
 FUNCTIONAL| PBE:
 FUNCTIONAL| J.P.Perdew, K.Burke, M.Ernzerhof, Phys. Rev. Letter, vol. 77, n 18,
 FUNCTIONAL|  pp. 3865-3868, (1996){spin unpolarized}                           
 KERNEL| Spin symmetry of excitations                                    Triplet
 TDDFPT| Number of states calculated                                           5
 TDDFPT| Number of Davidson iterations                                        20
 TDDFPT| Davidson iteration convergence                                0.100E-05
 TDDFPT| Max. number of Krylov space vectors                                  60
 TDDFPT| Molecular Orbitals:        Spin       AOs       Occ      Virt     Total
 TDDFPT|                               1        10         1         9        10

 *******************************************************************************
 **                                                                           **
 **                            ####### ####### #######                        **
 **                        #   ##      ##   ## ##                             **
 **                       ###  ######  ##   ## ##                             **
 **                        #       ##  ##   ## ##                             **
 **                            ######  ####### #######                        **
 **                 Based on the xas module from Augustin Bussy               **
 *******************************************************************************
 
 -------------------------------------------------------------------------------
 -                      TDDFPT TRIPLET ENERGIES                                 -
 -------------------------------------------------------------------------------
 
 -------------------------------------------------------------------------------
 -                            TDDFPT Initial Guess                             -
 -------------------------------------------------------------------------------
          State         Occupied      ->      Virtual          Excitation
          number         orbital              orbital          energy (eV)
 -------------------------------------------------------------------------------
             1                1                    2              9.02377
             2                1                    3             18.96383
             3                1                    4             24.20140
             4                1                    5             39.84948
             5                1                    6             39.84948

      Number of active states:                                          9
 -------------------------------------------------------------------------------
 
 -------------------------------------------------------------------------------
 -                      TDDFPT WAVEFUNCTION OPTIMIZATION                       -
 -------------------------------------------------------------------------------

          Step            Time         Convergence           Conv. states
 -------------------------------------------------------------------------------

    State    Exc. energy (eV)      Convergence (eV)
        1       7.2966452            -1.7271E+00
        2      17.8959129            -1.0679E+00
        3      22.7503934            -1.4510E+00
        4      36.3871805            -3.4623E+00
        5      36.3871805            -3.4623E+00

             1             0.2          1.2724E-01                      0

    State    Exc. energy (eV)      Convergence (eV)
        1       7.2963828            -2.6247E-04
        2      17.8889066            -7.0064E-03
        3      22.7491014            -1.2919E-03
        4      36.3871805             1.8126E-14
        5      36.3871805             6.0421E-15

             2             0.1          2.5748E-04                      2
 ------------------------- Restart Davidson iterations -------------------------

    State    Exc. energy (eV)      Convergence (eV)
        1       7.2963828            -1.8126E-14
        2      17.8889066            -6.0421E-15
        3      22.7491014            -1.5105E-14
        4      36.3871805            -2.4169E-14
        5      36.3871805            -2.4169E-14

             3             0.1          8.8818E-16                      5
 
 -------------------------------------------------------------------------------
 -  TDDFPT run converged in 3 iteration(s) 
 -------------------------------------------------------------------------------

 R-TDDFPT states of multiplicity 3
 Transition dipoles calculated using velocity formulation

         State    Excitation        Transition dipole (a.u.)        Oscillator
         number   energy (eV)       x           y           z     strength (a.u.)
         ------------------------------------------------------------------------
 TDDFPT|      1       7.29638   0.0000E+00  0.0000E+00  0.0000E+00   0.00000E+00
 TDDFPT|      2      17.88891   0.0000E+00  0.0000E+00  0.0000E+00   0.00000E+00
 TDDFPT|      3      22.74910   0.0000E+00  0.0000E+00  0.0000E+00   0.00000E+00
 TDDFPT|      4      36.38718   0.0000E+00  0.0000E+00  0.0000E+00   0.00000E+00
 TDDFPT|      5      36.38718   0.0000E+00  0.0000E+00  0.0000E+00   0.00000E+00

 TDDFPT : CheckSum  =  0.218614E+01
 
 -------------------------------------------------------------------------------
 -                            Excitation analysis                              -
 -------------------------------------------------------------------------------
        State             Occupied              Virtual             Excitation
        number             orbital              orbital             amplitude
 -------------------------------------------------------------------------------
             1   7.29638 eV
                                 1                    2               0.997779
                                 1                    4               0.066575
             2  17.88891 eV
                                 1                    3               0.999871
             3  22.74910 eV
                                 1                    4               0.997770
                                 1                    2              -0.066565
             4  36.38718 eV
                                 1                    5               1.000000
             5  36.38718 eV
                                 1                    6               1.000000
 -------------------------------------------------------------------------------
 
 -------------------------------------------------------------------------------
 -                            Natural Orbital analysis                         -
 -------------------------------------------------------------------------------
   STATE NR.      1             7.29638 eV
     Particle-Hole state: 1   Spin:1     Eigenvalue: 1.00000   Sum Eigv: 1.00000
   STATE NR.      2            17.88891 eV
     Particle-Hole state: 1   Spin:1     Eigenvalue: 1.00000   Sum Eigv: 1.00000
   STATE NR.      3            22.74910 eV
     Particle-Hole state: 1   Spin:1     Eigenvalue: 1.00000   Sum Eigv: 1.00000
   STATE NR.      4            36.38718 eV
     Particle-Hole state: 1   Spin:1     Eigenvalue: 1.00000   Sum Eigv: 1.00000
   STATE NR.      5            36.38718 eV
     Particle-Hole state: 1   Spin:1     Eigenvalue: 1.00000   Sum Eigv: 1.00000
 -------------------------------------------------------------------------------
 
                       triplet excitations finished                             
                                                                                
 -------------------------------------------------------------------------------
 -                      TDDFPT SINGLET ENERGIES                                -
 -------------------------------------------------------------------------------
 
 -------------------------------------------------------------------------------
 -                            TDDFPT Initial Guess                             -
 -------------------------------------------------------------------------------
          State         Occupied      ->      Virtual          Excitation
          number         orbital              orbital          energy (eV)
 -------------------------------------------------------------------------------
             1                1                    2              9.02377
             2                1                    3             18.96383
             3                1                    4             24.20140
             4                1                    5             39.84948
             5                1                    6             39.84948

      Number of active states:                                          9
 -------------------------------------------------------------------------------
 
 -------------------------------------------------------------------------------
 -                      TDDFPT WAVEFUNCTION OPTIMIZATION                       -
 -------------------------------------------------------------------------------

          Step            Time         Convergence           Conv. states
 -------------------------------------------------------------------------------

    State    Exc. energy (eV)      Convergence (eV)
        1      11.8137938             2.7900E+00
        2      21.3733630             2.4095E+00
        3      27.1444670             2.9431E+00
        4      41.6875678             1.8381E+00
        5      41.6875678             1.8381E+00

             1             0.1          1.0816E-01                      0

    State    Exc. energy (eV)      Convergence (eV)
        1      11.8101668            -3.6270E-03
        2      21.3289226            -4.4440E-02
        3      27.1284662            -1.6001E-02
        4      41.6875678            -4.2295E-14
        5      41.6875678            -6.0421E-15

             2             0.1          1.6332E-03                      2
 ------------------------- Restart Davidson iterations -------------------------

    State    Exc. energy (eV)      Convergence (eV)
        1      11.8101668             3.4138E-13
        2      21.3289226             5.4681E-13
        3      27.1284662             1.6707E-12
        4      41.6875678            -1.2084E-14
        5      41.6875678            -1.8126E-14

             3             0.1          6.1395E-14                      5
 
 -------------------------------------------------------------------------------
 -  TDDFPT run converged in 3 iteration(s) 
 -------------------------------------------------------------------------------

 R-TDDFPT states of multiplicity 1
 Transition dipoles calculated using velocity formulation

         State    Excitation        Transition dipole (a.u.)        Oscillator
         number   energy (eV)       x           y           z     strength (a.u.)
         ------------------------------------------------------------------------
 TDDFPT|      1      11.81017   5.8540E-13  5.8461E-13 -1.6287E+00   7.67546E-01
 TDDFPT|      2      21.32892  -6.5689E-13 -6.6203E-13 -2.9992E-10   4.70057E-20
 TDDFPT|      3      27.12847   1.5251E-12  1.5256E-12 -4.5774E-01   1.39258E-01
 TDDFPT|      4      41.68757  -3.7657E-01  3.7656E-01 -2.3788E-16   2.89651E-01
 TDDFPT|      5      41.68757  -3.7656E-01 -3.7657E-01 -5.7324E-14   2.89651E-01

 TDDFPT : CheckSum  =  0.254768E+01
 
 -------------------------------------------------------------------------------
 -                            Excitation analysis                              -
 -------------------------------------------------------------------------------
        State             Occupied              Virtual             Excitation
        number             orbital              orbital             amplitude
 -------------------------------------------------------------------------------
             1  11.81017 eV
                                 1                    2              -0.979193
                                 1                    4               0.202798
             2  21.32892 eV
                                 1                    3               0.999205
             3  27.12847 eV
                                 1                    4              -0.979092
                                 1                    2              -0.202642
             4  41.68757 eV
                                 1                    5               1.000000
             5  41.68757 eV
                                 1                    6              -1.000000
 -------------------------------------------------------------------------------
 
 -------------------------------------------------------------------------------
 -                            Natural Orbital analysis                         -
 -------------------------------------------------------------------------------
   STATE NR.      1            11.81017 eV
     Particle-Hole state: 1   Spin:1     Eigenvalue: 1.00000   Sum Eigv: 1.00000
   STATE NR.      2            21.32892 eV
     Particle-Hole state: 1   Spin:1     Eigenvalue: 1.00000   Sum Eigv: 1.00000
   STATE NR.      3            27.12847 eV
     Particle-Hole state: 1   Spin:1     Eigenvalue: 1.00000   Sum Eigv: 1.00000
   STATE NR.      4            41.68757 eV
     Particle-Hole state: 1   Spin:1     Eigenvalue: 1.00000   Sum Eigv: 1.00000
   STATE NR.      5            41.68757 eV
     Particle-Hole state: 1   Spin:1     Eigenvalue: 1.00000   Sum Eigv: 1.00000
 -------------------------------------------------------------------------------
 
 -------------------------------------------------------------------------------
 -                         START SOC CALCULATIONS                              -
 -------------------------------------------------------------------------------
Starting from TDDFPT Excited States:
      STATE          SINGLET/eV         TRIPLET/eV
        1             11.81017         7.29638
        2             21.32892        17.88891
        3             27.12847        22.74910
        4             41.68757        36.38718
        5             41.68757        36.38718
Starting restricted closed shell:
Diagonlzing SOC-Matrix
Ground state stabilisation:        58849.3010536638
------------------------------------------------------------------------------
-                         SOC CORRECTED SPECTRUM                             -
------------------------------------------------------------------------------
-     STATE   SOC-corrected exc. energies [eV]  Oscillator strengths [a.u.]  -
------------------------------------------------------------------------------
        1                58849.30105         0.00000
        2                58849.30105         0.00000
        3                58849.30105         0.00000
        4                95255.42759         0.00031
        5               144283.77452         0.00000
        6               144283.77452         0.00000
        7               144283.77452         0.00000
        8               172029.37761         0.02992
        9               183483.89335         0.00000
       10               183483.89335         0.00000
       11               183483.89335         0.00000
       12               218805.85518         0.01725
       13               293479.11822         0.00000
       14               293479.11823         0.00000
       15               293482.42835         0.00000
       16               293482.42835         0.00000
       17               293485.73899         0.00000
       18               293485.73899         0.00000
       19               336232.93914         0.15026
       20               336232.93914         0.15026
TDDFT+SOC : CheckSum (eV) 505.768946
SOC Calculation terminated
Returning to TDDFPT for Force calculation and deallocations

 ENERGY| Total FORCE_EVAL ( QS ) energy [a.u.]:               -1.138454928281994

 -------------------------------------------------------------------------------
 -                                                                             -
 -                                DBCSR STATISTICS                             -
 -                                                                             -
 -------------------------------------------------------------------------------
 COUNTER                                    TOTAL       BLAS       SMM       ACC
 flops     5 x     9 x     5                 5400       0.0%    100.0%      0.0%
 flops     1 x     1 x     5                10820       0.0%    100.0%      0.0%
 flops     5 x     1 x     5                53900       0.0%    100.0%      0.0%
 flops inhomo. stacks                       11238     100.0%      0.0%      0.0%
 flops total                        81.358000E+03      13.8%     86.2%      0.0%
 flops max/rank                     28.098000E+03      14.3%     85.7%      0.0%
 matmuls inhomo. stacks                       387     100.0%      0.0%      0.0%
 matmuls total                               2559      15.1%     84.9%      0.0%
 number of processed stacks                  2131      18.2%     81.8%      0.0%
 average stack size                                     1.0       1.2       0.0
 marketing flops                    88.028000E+03
 -------------------------------------------------------------------------------
 # multiplications                            473
 max memory usage/rank             204.058624E+06
 # max total images/rank                        1
 # max 3D layers                                1
 # MPI messages exchanged                   45408
 MPI messages size (bytes):
  total size                       683.256000E+03
  min size                           0.000000E+00
  max size                         360.000000E+00
  average size                      15.047040E+00
 MPI breakdown and total messages size (bytes):
             size <=      128               42936                   185976
       128 < size <=     8192                2472                   497280
      8192 < size <=    32768                   0                        0
     32768 < size <=   131072                   0                        0
    131072 < size <=  4194304                   0                        0
   4194304 < size <= 16777216                   0                        0
  16777216 < size                               0                        0
 -------------------------------------------------------------------------------
 -                                                                             -
 -                      DBCSR MESSAGE PASSING PERFORMANCE                      -
 -                                                                             -
 -------------------------------------------------------------------------------
 ROUTINE             CALLS      AVE VOLUME [Bytes]
 MP_Bcast                4                     12.
 MP_Allreduce         2125                      8.
 MP_Alltoall          5022                    594.
 MP_ISend             7564                     70.
 MP_IRecv             7564                     60.
 -------------------------------------------------------------------------------

 -------------------------------------------------------------------------------
 -                                                                             -
 -                                DBM STATISTICS                               -
 -                                                                             -
 -------------------------------------------------------------------------------
    M  x    N  x    K                                          COUNT     PERCENT
 -------------------------------------------------------------------------------

 -------------------------------------------------------------------------------
 -                                                                             -
 -                                GRID STATISTICS                              -
 -                                                                             -
 -------------------------------------------------------------------------------
 LP    KERNEL             BACKEND                              COUNT     PERCENT
 0     collocate ortho    CPU                                   1107      28.21%
 0     integrate ortho    CPU                                   1026      26.15%
 1     collocate ortho    CPU                                    738      18.81%
 1     integrate ortho    CPU                                    684      17.43%
 2     collocate ortho    CPU                                    123       3.13%
 2     integrate ortho    CPU                                    114       2.91%
 2     collocate general  CPU                                     80       2.04%
 2     integrate general  CPU                                     48       1.22%
 0     collocate general  CPU                                      2       0.05%
 0     integrate general  CPU                                      2       0.05%
 -------------------------------------------------------------------------------

 MEMORY| Estimated peak process memory [MiB]                                 195

 -------------------------------------------------------------------------------
 ----                             MULTIGRID INFO                            ----
 -------------------------------------------------------------------------------
 count for grid        1:            803          cutoff [a.u.]          200.00
 count for grid        2:            667          cutoff [a.u.]           66.67
 count for grid        3:            463          cutoff [a.u.]           22.22
 count for grid        4:            131          cutoff [a.u.]            7.41
 total gridlevel count  :           2064

 -------------------------------------------------------------------------------
 -                                                                             -
 -                         MESSAGE PASSING PERFORMANCE                         -
 -                                                                             -
 -------------------------------------------------------------------------------

 ROUTINE             CALLS      AVE VOLUME [Bytes]
 MP_Group                5
 MP_Bcast              495                3357919.
 MP_Allreduce         1514                    168.
 MP_Sync                44
 MP_Alltoall           822
 MP_SendRecv          3075                  60666.
 MP_ISendRecv         2655                  55495.
 MP_Wait              2813
 MP_comm_split          40
 MP_IRecv              158                      8.
 -------------------------------------------------------------------------------


 -------------------------------------------------------------------------------
 -                                                                             -
 -                           R E F E R E N C E S                               -
 -                                                                             -
 -------------------------------------------------------------------------------
 
 CP2K version 2023.2 (Development Version), the CP2K developers group (2023).
 CP2K is freely available from https://www.cp2k.org/ .

 Kuehne,Thomas D.; Iannuzzi,Marcella; Del Ben,Mauro;
 Rybkin,Vladimir V.; Seewald,Patrick; Stein,Frederick; Laino,Teodoro;
 Khaliullin,Rustam Z.; Schuett,Ole; Schiffmann,Florian; Golze,Dorothea;
 Wilhelm,Jan; Chulkov,Sergey; Bani-Hashemian,Mohammad Hossein;
 Weber,Valery; Borstnik,Urban; Taillefumier,Mathieu;
 Jakobovits,Alice Shoshana; Lazzaro,Alfio; Pabst,Hans; Mueller,Tiziano;
 Schade,Robert; Guidon,Manuel; Andermatt,Samuel; Holmberg,Nico;
 Schenter,Gregory K.; Hehn,Anna; Bussy,Augustin; Belleflamme,Fabian;
 Tabacchi,Gloria; Gloess,Andreas; Lass,Michael; Bethune,Iain;
 Mundy,Christopher J.; Plessl,Christian; Watkins,Matt;
 VandeVondele,Joost; Krack,Matthias; Hutter,Juerg. 
 The Journal of Chemical Physics, 152 (19), (2020). 
 CP2K: An electronic structure and molecular dynamics software package -
 Quickstep: Efficient and accurate electronic structure calculations.
 https://doi.org/10.1063/5.0007045

 Schuett, Ole; Messmer, Peter; Hutter, Juerg; VandeVondele, Joost. 
 Electronic Structure Calculations on Graphics Processing Units, John
 Wiley & Sons, Ltd, 173-190 (2016). 
 GPU-Accelerated Sparse Matrix-Matrix Multiplication for
 Linear Scaling Density Functional Theory.
 https://doi.org/10.1002/9781118670712.ch8

 Heinecke, A; Henry, G; Hutchinson, M; Pabst, H. 
 Proceedings of Intl. Supercomputing Conference, 981-991 (2016). 
 LIBXSMM: Accelerating Small Matrix Multiplications
 by Runtime Code Generation.
 https://doi.org/10.1109/SC.2016.83

 Borstnik, U; VandeVondele, J; Weber, V; Hutter, J. 
 PARALLEL COMPUTING, 40 (5-6), 47-58 (2014). 
 Sparse matrix multiplication: The distributed block-compressed sparse
 row library.
 https://doi.org/10.1016/j.parco.2014.03.012

 Hutter, J; Iannuzzi, M; Schiffmann, F; VandeVondele, J. 
 WIREs Comput Mol Sci., 4 (1), 15-25 (2014). 
 CP2K: atomistic simulations of condensed matter systems.
 https://doi.org/10.1002/wcms.1159

 Frigo, M; Johnson, SG. 
 PROCEEDINGS OF THE IEEE, 93 (2), 216-231 (2005). 
 The design and implementation of FFTW3.
 https://doi.org/10.1109/JPROC.2004.840301

 Iannuzzi, M; Chassaing, T; Wallman, T; Hutter, J. 
 CHIMIA, 59 (7-8), 499-503 (2005). 
 Ground and excited state density functional calculations with the
 Gaussian and augmented-plane-wave method.
 https://doi.org/10.2533/000942905777676164

 VandeVondele, J; Hutter, J. 
 JOURNAL OF CHEMICAL PHYSICS, 118 (10), 4365-4369 (2003). 
 An efficient orbital transformation method for electronic structure
 calculations.
 https://doi.org/10.1063/1.1543154

 Martin,Richard L.. 
 The Journal of Chemical Physics, 118 (11), 4775-4777 (2003). 
 Natural transition orbitals.
 https://doi.org/10.1063/1.1558471

 Lippert, G; Hutter, J; Parrinello, M. 
 THEORETICAL CHEMISTRY ACCOUNTS, 103 (2), 124-140 (1999). 
 The Gaussian and augmented-plane-wave density functional method for ab
 initio molecular dynamics simulations.
 https://doi.org/10.1007/s002140050523

 Krack, M; Parrinello, M. 
 PHYSICAL CHEMISTRY CHEMICAL PHYSICS, 2 (10), 2105-2112 (2000). 
 All-electron ab-initio molecular dynamics.
 https://doi.org/10.1039/b001167n

 Martyna, GJ; Tuckerman, ME. 
 JOURNAL OF CHEMICAL PHYSICS, 110 (6), 2810-2821 (1999). 
 A reciprocal space based method for treating long range interactions in
 ab initio and force-field-based calculations in clusters.
 https://doi.org/10.1063/1.477923

 Perdew, JP; Burke, K; Ernzerhof, M. 
 PHYSICAL REVIEW LETTERS, 77 (18), 3865-3868 (1996). 
 Generalized gradient approximation made simple.
 https://doi.org/10.1103/PhysRevLett.77.3865


 -------------------------------------------------------------------------------
 -                                                                             -
 -                                T I M I N G                                  -
 -                                                                             -
 -------------------------------------------------------------------------------
 SUBROUTINE                       CALLS  ASD         SELF TIME        TOTAL TIME
                                MAXIMUM       AVERAGE  MAXIMUM  AVERAGE  MAXIMUM
 CP2K                                 1  1.0    0.004    0.027    1.591    1.592
 qs_energies                          1  2.0    0.000    0.000    1.412    1.412
 qs_energies_properties               1  3.0    0.000    0.000    0.986    0.986
 tddfpt                               1  4.0    0.000    0.000    0.986    0.986
 tddfpt_soc_energies                  1  5.0    0.000    0.000    0.979    0.979
 tddfpt_energies                      2  6.0    0.000    0.000    0.947    0.948
 tddfpt_davidson_solver               4  7.0    0.000    0.001    0.855    0.855
 tddfpt_compute_Aop_evects            6  8.0    0.000    0.000    0.820    0.820
 fhxc_kernel                          6  9.0    0.001    0.001    0.797    0.797
 pw_transfer                        830 11.9    0.018    0.019    0.487    0.494
 fft_wrap_pw1pw2                    742 12.9    0.002    0.002    0.466    0.477
 fft_wrap_pw1pw2_200                504 14.1    0.035    0.037    0.428    0.436
 scf_env_do_scf                       1  3.0    0.000    0.000    0.406    0.406
 scf_env_do_scf_inner_loop           10  4.0    0.000    0.000    0.364    0.364
 fft3d_ps                           742 14.9    0.147    0.159    0.334    0.350
 rs_pw_transfer                     382 11.5    0.001    0.002    0.311    0.317
 tddfpt_apply_xc_analytic            28 10.0    0.003    0.004    0.255    0.256
 xc_pw_derive                       279 11.6    0.001    0.001    0.239    0.241
 qs_ks_update_qs_env                 11  5.0    0.000    0.000    0.236    0.237
 qs_rho_update_rho_low               41  8.6    0.000    0.001    0.236    0.237
 rebuild_ks_matrix                   10  6.0    0.000    0.000    0.236    0.236
 qs_ks_build_kohn_sham_matrix        10  7.0    0.001    0.001    0.236    0.236
 calculate_rho_elec                  41  9.6    0.003    0.003    0.233    0.233
 density_rs2pw                       41 10.6    0.001    0.001    0.208    0.211
 mp_alltoall_z22v                   742 16.9    0.156    0.197    0.156    0.197
 integrate_v_rspace                  38  9.7    0.001    0.001    0.170    0.184
 dbcsr_multiply_generic             473 10.4    0.008    0.009    0.179    0.184
 potential_pw2rs                     38 10.7    0.001    0.001    0.167    0.173
 rs_pw_transfer_RS2PW_200            82 12.4    0.052    0.060    0.155    0.167
 create_qs_kind_set                   1  2.0    0.000    0.000    0.155    0.157
 read_qs_kind                         1  3.0    0.081    0.081    0.155    0.157
 xc_calc_2nd_deriv_analytical        84 11.2    0.029    0.034    0.130    0.136
 mp_sendrecv_dv                    3075 13.5    0.126    0.133    0.126    0.133
 prepare_gapw_den                    40  9.4    0.000    0.000    0.131    0.133
 cp_dbcsr_sm_fm_multiply            144  9.0    0.001    0.001    0.126    0.129
 put_rho0_on_grid                    40 10.4    0.003    0.005    0.126    0.127
 xc_pw_divergence                    38 11.5    0.000    0.000    0.121    0.123
 yz_to_x                            319 16.2    0.011    0.012    0.100    0.117
 qs_vxc_create                       10  8.0    0.000    0.000    0.102    0.102
 xc_vxc_pw_create                    10  9.0    0.001    0.001    0.102    0.102
 qs_scf_new_mos                      10  5.0    0.000    0.000    0.100    0.100
 qs_scf_loop_do_ot                   10  6.0    0.000    0.000    0.100    0.100
 x_to_yz                            344 15.8    0.011    0.012    0.078    0.100
 xc_functional_eval                  88 11.1    0.000    0.000    0.060    0.098
 xc_rho_set_and_dset_create          12  9.8    0.002    0.002    0.096    0.096
 ot_scf_mini                         10  7.0    0.000    0.000    0.096    0.096
 mp_waitall_1                     25359 14.5    0.085    0.093    0.085    0.093
 rs_pw_transfer_PW2RS_200            63 12.3    0.034    0.039    0.089    0.091
 pbe_lda_eval                        87 12.2    0.049    0.087    0.049    0.087
 parser_read_line                 35257  4.0    0.006    0.007    0.074    0.076
 tddfpt_apply_coulomb                14 10.0    0.000    0.000    0.070    0.075
 multiply_cannon                    473 11.4    0.020    0.025    0.069    0.073
 calculate_xc_2nd_deriv_atom         28 10.0    0.004    0.021    0.012    0.073
 dbcsr_complete_redistribute        439 11.0    0.007    0.008    0.067    0.071
 parser_read_line_low                37  5.0    0.004    0.026    0.068    0.070
 mp_sum_d                           746  5.1    0.058    0.069    0.058    0.069
 make_m2s                           946 11.4    0.004    0.004    0.065    0.068
 broadcast_input_information         37  6.0    0.010    0.011    0.063    0.067
 ot_mini                             10  8.0    0.000    0.000    0.061    0.061
 copy_dbcsr_to_fm                   188  9.7    0.001    0.001    0.059    0.060
 pw_scatter_p                       382 14.8    0.058    0.059    0.058    0.059
 cp_dbcsr_sm_fm_multiply_core       144 10.0    0.000    0.000    0.048    0.053
 make_images                        946 12.4    0.008    0.008    0.050    0.052
 qs_ot_get_derivative                10  9.0    0.000    0.000    0.051    0.051
 pw_poisson_solve                    24  9.8    0.001    0.001    0.042    0.047
 integrate_vhg0_rspace               24  9.8    0.000    0.002    0.042    0.044
 mp_bcast_i_src                     148  7.0    0.037    0.043    0.037    0.043
 init_scf_loop                        1  4.0    0.000    0.000    0.042    0.042
 xc_2nd_deriv_of_r                   56 11.0    0.000    0.002    0.005    0.042
 copy_fm_to_dbcsr                   251 10.3    0.000    0.001    0.037    0.041
 pw_integral_ab                      24 10.8    0.002    0.002    0.033    0.039
 sum_up_and_integrate                10  8.0    0.000    0.000    0.035    0.037
 qs_ot_get_derivative_diag            9 10.0    0.000    0.000    0.037    0.037
 pw_gather_p                        360 15.2    0.033    0.037    0.033    0.037
 tddfpt_print_nto_analysis            2  7.0    0.001    0.001    0.035    0.036
 multiply_cannon_loop               473 12.4    0.006    0.006    0.032    0.034
 cp_dbcsr_plus_fm_fm_t_native        29  9.9    0.000    0.000    0.033    0.033
 -------------------------------------------------------------------------------

 The number of warnings for this run is : 0
 
 -------------------------------------------------------------------------------
  **** **** ******  **  PROGRAM ENDED AT                 2023-08-04 10:11:29.423
 ***** ** ***  *** **   PROGRAM RAN ON                                   tcopt15
 **    ****   ******    PROGRAM RAN BY                                     ahehn
 ***** **    ** ** **   PROGRAM PROCESS ID                                109752
  **** **  *******  **  PROGRAM STOPPED IN /data/ahehn/JanRobert/Masterthesis/Re
                                           gtests/GAPW/gapw_all/h2/pbe/pbe_gapw
 DBCSR| CPU Multiplication driver                                           XSMM (U)
 DBCSR| Multrec recursion limit                                              512 (U)
 DBCSR| Multiplication stack size                                           1000 (D)
 DBCSR| Maximum elements for images                                    UNLIMITED (U)
 DBCSR| Multiplicative factor virtual images                                   1 (U)
 DBCSR| Use multiplication densification                                       T (D)
 DBCSR| Multiplication size stacks                                             3 (U)
 DBCSR| Use memory pool for CPU allocation                                     F (U)
 DBCSR| Number of 3D layers                                               SINGLE (U)
 DBCSR| Use MPI memory allocation                                              F (U)
 DBCSR| Use RMA algorithm                                                      F (U)
 DBCSR| Use Communication thread                                               T (U)
 DBCSR| Communication thread load                                             87 (D)
 DBCSR| MPI: My process id                                                     0
 DBCSR| MPI: Number of processes                                              16
 DBCSR| OMP: Current number of threads                                         1
 DBCSR| OMP: Max number of threads                                             1
 DBCSR| Split modifier for TAS multiplication algorithm                  1.0E+00 (U)


  **** **** ******  **  PROGRAM STARTED AT               2023-08-04 10:13:04.539
 ***** ** ***  *** **   PROGRAM STARTED ON                               tcopt15
 **    ****   ******    PROGRAM STARTED BY                                 ahehn
 ***** **    ** ** **   PROGRAM PROCESS ID                                110100
  **** **  *******  **  PROGRAM STARTED IN /data/ahehn/JanRobert/Masterthesis/Re
                                           gtests/GAPW/gapw_all/h2/pbe/pbe_gpw

 CP2K| version string:                 CP2K version 2023.2 (Development Version)
 CP2K| source code revision number:                                  git:7e4716c
 CP2K| cp2kflags: omp libint fftw3 libxc parallel mpi_f08 scalapack cosma xsmm s
 CP2K|            pglib sirius libvori libbqb libvdwxc
 CP2K| is freely available from                            https://www.cp2k.org/
 CP2K| Program compiled at                      Fri 04 Aug 2023 09:47:48 AM CEST
 CP2K| Program compiled on                                               tcopt15
 CP2K| Program compiled for                                                local
 CP2K| Data directory path                      /data/ahehn/cp2k_own_master/data
 CP2K| Input file name                       H2_PBE_GAPW_comp_orca_sing_trip.inp

 GLOBAL| Force Environment number                                              1
 GLOBAL| Basis set file name                                     EMSL_BASIS_SETS
 GLOBAL| Potential file name                                           POTENTIAL
 GLOBAL| MM Potential file name                                     MM_POTENTIAL
 GLOBAL| Coordinate file name                                      __STD_INPUT__
 GLOBAL| Method name                                                        CP2K
 GLOBAL| Project name                                                         ne
 GLOBAL| Run type                                                         ENERGY
 GLOBAL| FFT library                                                       FFTW3
 GLOBAL| Diagonalization library                                       ScaLAPACK
 GLOBAL| DGEMM library                                                      BLAS
 GLOBAL| Orthonormality check for eigenvectors                          DISABLED
 GLOBAL| Matrix multiplication library                                     COSMA
 GLOBAL| All-to-all communication in single precision                          F
 GLOBAL| FFTs using library dependent lengths                                  F
 GLOBAL| Grid backend                                                       AUTO
 GLOBAL| Global print level                                               MEDIUM
 GLOBAL| MPI I/O enabled                                                       T
 GLOBAL| Total number of message passing processes                            16
 GLOBAL| Number of threads for this process                                    1
 GLOBAL| This output is from process                                           0
 GLOBAL| Stack size for threads created by OpenMP (OMP_STACKSIZE)        default
 GLOBAL| CPU model name                          AMD EPYC 7742 64-Core Processor
 GLOBAL| CPUID                                                              1002
 GLOBAL| Compiled for CPUID                                                    0

 *** HINT in environment.F:904 :: The compiler target flags (generic) used ***
 *** to build this binary cannot exploit all extensions of this CPU model  ***
 *** (x86_avx2). Consider compiler target flags as part of FCFLAGS and     ***
 *** CFLAGS (ARCH file).                                                   ***


 MEMORY| system memory details [Kb]
 MEMORY|                        rank 0           min           max       average
 MEMORY| MemTotal            528075188     528075188     528075188     528075188
 MEMORY| MemFree             490183832     490183832     490185880     490184600
 MEMORY| Buffers                     8             8             8             8
 MEMORY| Cached               28270936      28270936      28270936      28270936
 MEMORY| Slab                  2075136       2075136       2075136       2075136
 MEMORY| SReclaimable           880220        880220        880220        880220
 MEMORY| MemLikelyFree       519334996     519334996     519337044     519335764


 *** Fundamental physical constants (SI units) ***

 *** Literature: B. J. Mohr and B. N. Taylor,
 ***             CODATA recommended values of the fundamental physical
 ***             constants: 2006, Web Version 5.1
 ***             http://physics.nist.gov/constants

 Speed of light in vacuum [m/s]                             2.99792458000000E+08
 Magnetic constant or permeability of vacuum [N/A**2]       1.25663706143592E-06
 Electric constant or permittivity of vacuum [F/m]          8.85418781762039E-12
 Planck constant (h) [J*s]                                  6.62606896000000E-34
 Planck constant (h-bar) [J*s]                              1.05457162825177E-34
 Elementary charge [C]                                      1.60217648700000E-19
 Electron mass [kg]                                         9.10938215000000E-31
 Electron g factor [ ]                                     -2.00231930436220E+00
 Proton mass [kg]                                           1.67262163700000E-27
 Fine-structure constant                                    7.29735253760000E-03
 Rydberg constant [1/m]                                     1.09737315685270E+07
[...]
                                 1                    2               0.979118
                                 1                    4              -0.203294
             2  21.37381 eV
                                 1                    3               1.000000
             3  27.14432 eV
                                 1                    4               0.979118
                                 1                    2               0.203294
             4  41.68888 eV
                                 1                    6               1.000000
             5  41.68888 eV
                                 1                    5              -1.000000
 -------------------------------------------------------------------------------
 
 -------------------------------------------------------------------------------
 -                            Natural Orbital analysis                         -
 -------------------------------------------------------------------------------
   STATE NR.      1            11.81377 eV
     Particle-Hole state: 1   Spin:1     Eigenvalue: 1.00000   Sum Eigv: 1.00000
   STATE NR.      2            21.37381 eV
     Particle-Hole state: 1   Spin:1     Eigenvalue: 1.00000   Sum Eigv: 1.00000
   STATE NR.      3            27.14432 eV
     Particle-Hole state: 1   Spin:1     Eigenvalue: 1.00000   Sum Eigv: 1.00000
   STATE NR.      4            41.68888 eV
     Particle-Hole state: 1   Spin:1     Eigenvalue: 1.00000   Sum Eigv: 1.00000
   STATE NR.      5            41.68888 eV
     Particle-Hole state: 1   Spin:1     Eigenvalue: 1.00000   Sum Eigv: 1.00000
 -------------------------------------------------------------------------------
 
 -------------------------------------------------------------------------------
 -                         START SOC CALCULATIONS                              -
 -------------------------------------------------------------------------------
Starting from TDDFPT Excited States:
      STATE          SINGLET/eV         TRIPLET/eV
        1             11.81377         7.18199
        2             21.37381        17.60141
        3             27.14432        22.30801
        4             41.68888        36.41727
        5             41.68888        36.41727
Starting restricted closed shell:
Diagonlzing SOC-Matrix
Ground state stabilisation:        57926.6751129366
------------------------------------------------------------------------------
-                         SOC CORRECTED SPECTRUM                             -
------------------------------------------------------------------------------
-     STATE   SOC-corrected exc. energies [eV]  Oscillator strengths [a.u.]  -
------------------------------------------------------------------------------
        1                57926.67511         0.00000
        2                57926.67511         0.00000
        3                57926.67511         0.00000
        4                95284.49929         0.00004
        5               141964.94519         0.00000
        6               141964.94519         0.00000
        7               141964.94519         0.00000
        8               172391.43864         0.03064
        9               179926.22107         0.00000
       10               179926.22107         0.00000
       11               179926.22107         0.00000
       12               218933.74871         0.01301
       13               293721.83082         0.00000
       14               293721.83082         0.00000
       15               293725.14094         0.00000
       16               293725.14094         0.00000
       17               293728.45159         0.00000
       18               293728.45159         0.00000
       19               336243.52155         0.15027
       20               336243.52155         0.15027
TDDFT+SOC : CheckSum (eV) 503.487524
SOC Calculation terminated
Returning to TDDFPT for Force calculation and deallocations

 ENERGY| Total FORCE_EVAL ( QS ) energy [a.u.]:               -1.138440057941488

 -------------------------------------------------------------------------------
 -                                                                             -
 -                                DBCSR STATISTICS                             -
 -                                                                             -
 -------------------------------------------------------------------------------
 COUNTER                                    TOTAL       BLAS       SMM       ACC
 flops     5 x     9 x     5                 5400       0.0%    100.0%      0.0%
 flops     1 x     1 x     5                10740       0.0%    100.0%      0.0%
 flops     5 x     1 x     5                51500       0.0%    100.0%      0.0%
 flops inhomo. stacks                        9770     100.0%      0.0%      0.0%
 flops total                        77.410000E+03      12.6%     87.4%      0.0%
 flops max/rank                     26.300000E+03      13.3%     86.7%      0.0%
 matmuls inhomo. stacks                       341     100.0%      0.0%      0.0%
 matmuls total                               2457      13.9%     86.1%      0.0%
 number of processed stacks                  2029      16.8%     83.2%      0.0%
 average stack size                                     1.0       1.3       0.0
 marketing flops                    83.630000E+03
 -------------------------------------------------------------------------------
 # multiplications                            434
 max memory usage/rank             715.313152E+06
 # max total images/rank                        1
 # max 3D layers                                1
 # MPI messages exchanged                   41664
 MPI messages size (bytes):
  total size                       643.584000E+03
  min size                           0.000000E+00
  max size                         360.000000E+00
  average size                      15.447004E+00
 MPI breakdown and total messages size (bytes):
             size <=      128               39336                   175104
       128 < size <=     8192                2328                   468480
      8192 < size <=    32768                   0                        0
     32768 < size <=   131072                   0                        0
    131072 < size <=  4194304                   0                        0
   4194304 < size <= 16777216                   0                        0
  16777216 < size                               0                        0
 -------------------------------------------------------------------------------
 -                                                                             -
 -                      DBCSR MESSAGE PASSING PERFORMANCE                      -
 -                                                                             -
 -------------------------------------------------------------------------------
 ROUTINE             CALLS      AVE VOLUME [Bytes]
 MP_Bcast                4                     12.
 MP_Allreduce         1937                      8.
 MP_Alltoall          4682                    597.
 MP_ISend             6940                     70.
 MP_IRecv             6940                     60.
 -------------------------------------------------------------------------------

 -------------------------------------------------------------------------------
 -                                                                             -
 -                                DBM STATISTICS                               -
 -                                                                             -
 -------------------------------------------------------------------------------
    M  x    N  x    K                                          COUNT     PERCENT
 -------------------------------------------------------------------------------

 -------------------------------------------------------------------------------
 -                                                                             -
 -                                GRID STATISTICS                              -
 -                                                                             -
 -------------------------------------------------------------------------------
 LP    KERNEL             BACKEND                              COUNT     PERCENT
 0     collocate ortho    CPU                                   1692      32.53%
 0     integrate ortho    CPU                                   1551      29.82%
 1     collocate ortho    CPU                                    864      16.61%
 1     integrate ortho    CPU                                    792      15.22%
 2     collocate ortho    CPU                                    108       2.08%
 2     integrate ortho    CPU                                     99       1.90%
 0     collocate general  CPU                                     64       1.23%
 0     integrate general  CPU                                     32       0.62%
 -------------------------------------------------------------------------------

 MEMORY| Estimated peak process memory [MiB]                                 683

 -------------------------------------------------------------------------------
 ----                             MULTIGRID INFO                            ----
 -------------------------------------------------------------------------------
 count for grid        1:            826          cutoff [a.u.]         2000.00
 count for grid        2:            415          cutoff [a.u.]          666.67
 count for grid        3:            824          cutoff [a.u.]          222.22
 count for grid        4:            246          cutoff [a.u.]           74.07
 count for grid        5:            163          cutoff [a.u.]           24.69
 total gridlevel count  :           2474

 -------------------------------------------------------------------------------
 -                                                                             -
 -                         MESSAGE PASSING PERFORMANCE                         -
 -                                                                             -
 -------------------------------------------------------------------------------

 ROUTINE             CALLS      AVE VOLUME [Bytes]
 MP_Group                6
 MP_Bcast              338                4917462.
 MP_Allreduce         1180                   1344.
 MP_Sync                43
 MP_Alltoall           770               15946766.
 MP_SendRecv          2160                 275072.
 MP_ISendRecv         1980                 275072.
 MP_Wait              3794
 MP_comm_split          38
 MP_ISend             1440                 929280.
 MP_IRecv             1598                 837400.
 -------------------------------------------------------------------------------


 -------------------------------------------------------------------------------
 -                                                                             -
 -                           R E F E R E N C E S                               -
 -                                                                             -
 -------------------------------------------------------------------------------
 
 CP2K version 2023.2 (Development Version), the CP2K developers group (2023).
 CP2K is freely available from https://www.cp2k.org/ .

 Kuehne,Thomas D.; Iannuzzi,Marcella; Del Ben,Mauro;
 Rybkin,Vladimir V.; Seewald,Patrick; Stein,Frederick; Laino,Teodoro;
 Khaliullin,Rustam Z.; Schuett,Ole; Schiffmann,Florian; Golze,Dorothea;
 Wilhelm,Jan; Chulkov,Sergey; Bani-Hashemian,Mohammad Hossein;
 Weber,Valery; Borstnik,Urban; Taillefumier,Mathieu;
 Jakobovits,Alice Shoshana; Lazzaro,Alfio; Pabst,Hans; Mueller,Tiziano;
 Schade,Robert; Guidon,Manuel; Andermatt,Samuel; Holmberg,Nico;
 Schenter,Gregory K.; Hehn,Anna; Bussy,Augustin; Belleflamme,Fabian;
 Tabacchi,Gloria; Gloess,Andreas; Lass,Michael; Bethune,Iain;
 Mundy,Christopher J.; Plessl,Christian; Watkins,Matt;
 VandeVondele,Joost; Krack,Matthias; Hutter,Juerg. 
 The Journal of Chemical Physics, 152 (19), (2020). 
 CP2K: An electronic structure and molecular dynamics software package -
 Quickstep: Efficient and accurate electronic structure calculations.
 https://doi.org/10.1063/5.0007045

 Schuett, Ole; Messmer, Peter; Hutter, Juerg; VandeVondele, Joost. 
 Electronic Structure Calculations on Graphics Processing Units, John
 Wiley & Sons, Ltd, 173-190 (2016). 
 GPU-Accelerated Sparse Matrix-Matrix Multiplication for
 Linear Scaling Density Functional Theory.
 https://doi.org/10.1002/9781118670712.ch8

 Heinecke, A; Henry, G; Hutchinson, M; Pabst, H. 
 Proceedings of Intl. Supercomputing Conference, 981-991 (2016). 
 LIBXSMM: Accelerating Small Matrix Multiplications
 by Runtime Code Generation.
 https://doi.org/10.1109/SC.2016.83

 Borstnik, U; VandeVondele, J; Weber, V; Hutter, J. 
 PARALLEL COMPUTING, 40 (5-6), 47-58 (2014). 
 Sparse matrix multiplication: The distributed block-compressed sparse
 row library.
 https://doi.org/10.1016/j.parco.2014.03.012

 Hutter, J; Iannuzzi, M; Schiffmann, F; VandeVondele, J. 
 WIREs Comput Mol Sci., 4 (1), 15-25 (2014). 
 CP2K: atomistic simulations of condensed matter systems.
 https://doi.org/10.1002/wcms.1159

 VandeVondele, J; Krack, M; Mohamed, F; Parrinello, M; Chassaing, T;
 Hutter, J. COMPUTER PHYSICS COMMUNICATIONS, 167 (2), 103-128 (2005). 
 QUICKSTEP: Fast and accurate density functional calculations using a
 mixed Gaussian and plane waves approach.
 https://doi.org/10.1016/j.cpc.2004.12.014

 Frigo, M; Johnson, SG. 
 PROCEEDINGS OF THE IEEE, 93 (2), 216-231 (2005). 
 The design and implementation of FFTW3.
 https://doi.org/10.1109/JPROC.2004.840301

 Iannuzzi, M; Chassaing, T; Wallman, T; Hutter, J. 
 CHIMIA, 59 (7-8), 499-503 (2005). 
 Ground and excited state density functional calculations with the
 Gaussian and augmented-plane-wave method.
 https://doi.org/10.2533/000942905777676164

 VandeVondele, J; Hutter, J. 
 JOURNAL OF CHEMICAL PHYSICS, 118 (10), 4365-4369 (2003). 
 An efficient orbital transformation method for electronic structure
 calculations.
 https://doi.org/10.1063/1.1543154

 Martin,Richard L.. 
 The Journal of Chemical Physics, 118 (11), 4775-4777 (2003). 
 Natural transition orbitals.
 https://doi.org/10.1063/1.1558471

 Krack, M; Parrinello, M. 
 PHYSICAL CHEMISTRY CHEMICAL PHYSICS, 2 (10), 2105-2112 (2000). 
 All-electron ab-initio molecular dynamics.
 https://doi.org/10.1039/b001167n

 Martyna, GJ; Tuckerman, ME. 
 JOURNAL OF CHEMICAL PHYSICS, 110 (6), 2810-2821 (1999). 
 A reciprocal space based method for treating long range interactions in
 ab initio and force-field-based calculations in clusters.
 https://doi.org/10.1063/1.477923

 Lippert, G; Hutter, J; Parrinello, M. 
 MOLECULAR PHYSICS, 92 (3), 477-487 (1997). 
 A hybrid Gaussian and plane wave density functional scheme.
 https://doi.org/10.1080/002689797170220

 Perdew, JP; Burke, K; Ernzerhof, M. 
 PHYSICAL REVIEW LETTERS, 77 (18), 3865-3868 (1996). 
 Generalized gradient approximation made simple.
 https://doi.org/10.1103/PhysRevLett.77.3865


 -------------------------------------------------------------------------------
 -                                                                             -
 -                                T I M I N G                                  -
 -                                                                             -
 -------------------------------------------------------------------------------
 SUBROUTINE                       CALLS  ASD         SELF TIME        TOTAL TIME
                                MAXIMUM       AVERAGE  MAXIMUM  AVERAGE  MAXIMUM
 CP2K                                 1  1.0    0.009    0.031   31.063   31.063
 qs_energies                          1  2.0    0.000    0.000   30.543   30.544
 pw_transfer                        725 11.8    0.043    0.048   23.875   23.954
 fft_wrap_pw1pw2                    687 12.9    0.006    0.007   23.781   23.861
 fft_wrap_pw1pw2_2000               410 14.1    1.726    1.889   23.085   23.236
 qs_energies_properties               1  3.0    0.000    0.000   22.301   22.302
 tddfpt                               1  4.0    0.000    0.000   22.301   22.302
 tddfpt_soc_energies                  1  5.0    0.003    0.003   22.295   22.295
 tddfpt_energies                      2  6.0    0.000    0.000   22.260   22.261
 tddfpt_davidson_solver               4  7.0    0.000    0.001   20.695   20.695
 tddfpt_compute_Aop_evects            5  8.0    0.000    0.000   20.660   20.660
 fhxc_kernel                          5  9.0    0.001    0.001   20.640   20.640
 fft3d_ps                           687 14.9   15.114   16.178   18.675   18.861
 xc_pw_derive                       249 11.5    0.002    0.002   15.030   15.090
 tddfpt_apply_xc_analytic            24 10.0    0.082    0.085   14.145   14.157
 scf_env_do_scf                       1  3.0    0.000    0.000    7.972    7.972
 scf_env_do_scf_inner_loop            9  4.0    0.000    0.001    7.097    7.098
 xc_pw_divergence                    33 11.5    0.001    0.001    6.481    6.523
 qs_ks_update_qs_env                 10  5.0    0.000    0.000    6.435    6.435
 rebuild_ks_matrix                    9  6.0    0.000    0.000    6.434    6.435
 qs_ks_build_kohn_sham_matrix         9  7.0    0.001    0.002    6.434    6.435
 qs_rho_update_rho_low               36  8.5    0.000    0.000    5.672    5.673
 calculate_rho_elec                  36  9.5    0.057    0.058    5.672    5.673
 xc_calc_2nd_deriv_analytical        24 11.0    0.641    0.668    5.603    5.609
 mp_alltoall_z22v                   687 16.9    2.284    5.347    2.284    5.347
 density_rs2pw                       36 10.5    0.001    0.002    5.199    5.221
 qs_vxc_create                        9  8.0    0.000    0.000    4.809    4.814
 xc_vxc_pw_create                     9  9.0    0.028    0.032    4.809    4.813
 x_to_yz                            370 15.7    0.727    0.746    2.033    4.764
 xc_rho_set_and_dset_create          11  9.8    0.048    0.050    4.176    4.196
 integrate_v_rspace                  33  9.7    0.001    0.001    2.590    2.606
 potential_pw2rs                     33 10.7    0.003    0.004    2.555    2.571
 rs_pw_transfer                     348 11.6    0.004    0.004    1.988    2.011
 yz_to_x                            317 16.1    0.537    0.598    1.515    1.852
 pw_scatter_p                       370 14.7    1.745    1.786    1.745    1.786
 pw_gather_p                        317 15.1    1.545    1.653    1.545    1.653
 xc_functional_eval                  11 10.8    0.000    0.000    1.360    1.377
 create_kernel_env                    2  7.0    0.000    0.000    1.195    1.202
 xc_prep_2nd_deriv                    2  8.0    0.000    0.000    1.195    1.202
 pbe_lda_eval                        10 11.9    1.087    1.101    1.087    1.101
 init_scf_loop                        1  4.0    0.000    0.000    0.874    0.874
 tddfpt_apply_coulomb                10 10.0    0.000    0.000    0.786    0.792
 sum_up_and_integrate                 9  8.0    0.011    0.013    0.733    0.733
 fft_wrap_pw1pw2_670                 69 13.6    0.058    0.065    0.477    0.671
 -------------------------------------------------------------------------------

 The number of warnings for this run is : 0
 
 -------------------------------------------------------------------------------
  **** **** ******  **  PROGRAM ENDED AT                 2023-08-04 10:13:36.102
 ***** ** ***  *** **   PROGRAM RAN ON                                   tcopt15
 **    ****   ******    PROGRAM RAN BY                                     ahehn
 ***** **    ** ** **   PROGRAM PROCESS ID                                110100
  **** **  *******  **  PROGRAM STOPPED IN /data/ahehn/JanRobert/Masterthesis/Re
                                           gtests/GAPW/gapw_all/h2/pbe/pbe_gpw
